version 3
run General-0-20240512-20:08:39-44952
attr configname General
attr datetime 20240512-20:08:39
attr datetimef 20240512-200839
attr experiment General
attr inifile omnetpp.ini
attr iterationvars ""
attr iterationvarsd ""
attr iterationvarsf ""
attr measurement ""
attr network Network
attr processid 44952
attr repetition 0
attr replication #0
attr resultdir results
attr runnumber 0
attr seedset 0
config network Network
config sim-time-limit 200s
config Network.nodeTx.gen.packetByteSize 12500
config Network.nodeTx.serviceTime exponential(0.001)
config Network.nodeTx.gen.generationInterval exponential(0.001)
config Network.nodeTx.transportTx.bufferSize 2000000
config Network.queue.bufferSize 200
config Network.queue.serviceTime exponential(0.001)
config Network.queue1.bufferSize 200
config Network.queue1.serviceTime exponential(0.001)
config Network.queue2.bufferSize 200
config Network.queue2.serviceTime exponential(0.001)
config Network.nodeRx.transportRx.bufferSize 200
config Network.nodeRx.serviceTime exponential(0.001)

vector 0 Network.nodeTx.transportTx PacketDropQueue ETV
vector 1 Network.queue1 "" ETV
vector 2 Network.nodeRx.transportRx PacketDropQueue ETV
vector 3 Network.queue2 "" ETV
vector 4 Network.nodeTx.transportTx BufferSizeQueue ETV
vector 5 Network.queue1 "" ETV
vector 6 Network.nodeRx.transportRx BufferSizeQueue ETV
vector 7 Network.nodeRx.sink Delay ETV
vector 8 Network.queue2 "" ETV
4	2	0.000795874505	1
4	5	0.001694434893	1
4	7	0.002950365651	2
4	9	0.004809969863	3
4	11	0.005733192994	4
4	13	0.00768473833	5
4	15	0.00847193947	6
4	17	0.010350903524	7
4	19	0.010901952011	8
4	21	0.011878958437	9
4	23	0.012917117738	10
4	25	0.013402245902	11
4	27	0.013977765099	12
4	29	0.014330924238	13
4	31	0.01655444866	14
4	33	0.016612833329	15
4	35	0.019927745609	16
4	37	0.02024610175	17
4	39	0.020729703855	18
4	41	0.021379150203	19
4	43	0.022948046321	20
4	45	0.024620257521	21
4	47	0.025372931634	22
4	49	0.026026814201	23
4	51	0.026866247054	24
4	53	0.027365119063	25
4	55	0.029963373149	26
4	57	0.031771742413	27
4	59	0.031845427768	28
4	61	0.032257005764	29
4	63	0.03234816679	30
4	65	0.033392779298	31
4	67	0.033413204886	32
4	69	0.033872453023	33
4	71	0.035659940686	34
4	73	0.038810110615	35
4	75	0.040315894874	36
4	77	0.040467125728	37
4	79	0.042507439986	38
4	81	0.044548332202	39
4	83	0.048393554071	40
4	85	0.049035263244	41
4	87	0.050640502801	42
4	89	0.052254504876	43
4	91	0.052873434336	44
4	93	0.053608398757	45
4	95	0.055124934731	46
4	97	0.056260873673	47
4	99	0.056386748082	48
4	101	0.057661975784	49
4	103	0.058683407658	50
4	105	0.059555728853	51
4	107	0.059710458534	52
4	109	0.060481293192	53
4	111	0.06337571367	54
4	113	0.06479707835	55
4	115	0.065534905642	56
4	117	0.065646851803	57
4	119	0.066182417523	58
4	121	0.066824112225	59
4	123	0.067131392577	60
4	125	0.067337595859	61
4	127	0.068825850685	62
4	129	0.07016114087	63
4	131	0.070770223293	64
4	133	0.071014271784	65
4	135	0.07185460649	66
4	137	0.071999884517	67
4	139	0.072018853086	68
4	141	0.072410623897	69
4	143	0.073372004836	70
4	145	0.073534141325	71
4	147	0.074481138002	72
4	149	0.074732579934	73
4	151	0.075692127911	74
4	153	0.07618068496	75
4	155	0.079058599981	76
4	157	0.081387513355	77
4	159	0.08253265231	78
4	161	0.083130398387	79
4	163	0.083575916882	80
4	165	0.084525411465	81
4	167	0.085099943872	82
4	169	0.087426294934	83
4	171	0.088622402733	84
4	173	0.088726963959	85
4	175	0.088789079249	86
4	177	0.092289292933	87
4	179	0.093388205401	88
4	181	0.094447039532	89
4	183	0.095557636978	90
4	185	0.095745063044	91
4	187	0.09598126975	92
4	189	0.096424673779	93
4	191	0.096562702467	94
4	193	0.097951745157	95
4	195	0.098330707121	96
4	197	0.099266768681	97
4	199	0.099718870741	98
4	201	0.100111983298	99
4	206	0.100956411092	99
4	208	0.100995594248	100
4	210	0.101572918559	101
4	212	0.102578789564	102
4	214	0.10703328641	103
4	216	0.110226233052	104
4	218	0.11033386816	105
4	220	0.111391694573	106
4	222	0.111625996092	107
4	224	0.112634015337	108
4	226	0.112809928882	109
4	228	0.118170029232	110
4	230	0.119228771947	111
4	232	0.120100687801	112
4	234	0.120392768334	113
4	236	0.120927833011	114
4	238	0.121555774592	115
4	240	0.122199555594	116
4	242	0.122479832602	117
4	244	0.123456696676	118
4	246	0.123629824132	119
4	248	0.124042325362	120
4	250	0.124159280772	121
4	252	0.125282449074	122
4	254	0.126350521271	123
4	256	0.126732077114	124
4	258	0.126880789383	125
4	260	0.128387424716	126
4	262	0.128606305313	127
4	264	0.131593495205	128
4	266	0.132053509163	129
4	268	0.133139778544	130
4	270	0.134860110202	131
4	272	0.13487377478	132
4	274	0.134975919662	133
4	276	0.135951021596	134
4	278	0.137770840515	135
4	280	0.138890654881	136
4	282	0.138991689656	137
4	284	0.142565278028	138
4	286	0.146314309488	139
4	288	0.148419630789	140
4	290	0.149051967385	141
4	292	0.149764550978	142
4	294	0.153526478263	143
4	296	0.153583805189	144
4	298	0.154512283686	145
4	300	0.155112230573	146
4	302	0.156456475845	147
4	304	0.156476665973	148
4	306	0.156516642272	149
4	308	0.157099520661	150
4	310	0.157431930902	151
4	312	0.161323501025	152
4	314	0.16145155779	153
4	316	0.161896977252	154
4	318	0.162248153341	155
4	320	0.162903799625	156
4	322	0.163030188261	157
4	324	0.164197061788	158
4	326	0.164579762737	159
4	328	0.166703999934	160
4	330	0.16723888431	161
4	332	0.169742796093	162
4	334	0.169809093494	163
4	336	0.170053488942	164
4	338	0.171232678469	165
4	340	0.172065521985	166
4	342	0.172901619517	167
4	344	0.17490486004	168
4	346	0.17521327488	169
4	348	0.175924522817	170
4	350	0.176665281767	171
4	352	0.179150864124	172
4	354	0.179249514432	173
4	356	0.18178981894	174
4	358	0.182647714581	175
4	360	0.182734485063	176
4	362	0.185383740992	177
4	364	0.185709081408	178
4	366	0.186092641622	179
4	368	0.186102042373	180
4	370	0.187202888283	181
4	372	0.189050215934	182
4	374	0.189191546648	183
4	376	0.190233327302	184
4	378	0.191493261112	185
4	380	0.193334543583	186
4	382	0.19367619775	187
4	384	0.193983715474	188
4	386	0.194186065913	189
4	388	0.194693266036	190
4	390	0.195576395078	191
4	392	0.196381192478	192
4	394	0.196401504937	193
4	396	0.196581757189	194
4	398	0.198347498261	195
4	400	0.198809229157	196
4	402	0.198813935697	197
4	404	0.198972277203	198
4	406	0.200104911345	199
4	411	0.200947994377	199
4	415	0.201262716038	200
4	417	0.202479224691	201
4	419	0.203807982565	202
4	421	0.204148329303	203
4	423	0.207423472481	204
4	425	0.207991376634	205
4	427	0.208277397607	206
4	429	0.209688422016	207
4	431	0.210546814984	208
4	433	0.211051158791	209
4	435	0.211947749662	210
4	437	0.214211483238	211
4	439	0.21506070405	212
4	441	0.21607936278	213
4	443	0.216331782773	214
4	445	0.218553289671	215
4	447	0.221605571328	216
4	449	0.222745179292	217
4	451	0.223337803319	218
4	453	0.223934182713	219
4	455	0.225807642593	220
4	457	0.229650649176	221
4	459	0.230852887743	222
4	461	0.23097641439	223
4	463	0.231329434523	224
4	465	0.232786253082	225
4	467	0.234467175287	226
4	469	0.234997897784	227
4	471	0.235502916532	228
4	473	0.236628198549	229
4	475	0.238757697945	230
4	477	0.239045108421	231
4	479	0.239915644247	232
4	481	0.240291383089	233
4	483	0.242426213539	234
4	485	0.245790583992	235
4	487	0.246969966926	236
4	489	0.247857828336	237
4	491	0.249149737605	238
4	493	0.250227572489	239
4	495	0.25092337195	240
4	497	0.251685239721	241
4	499	0.254810708079	242
4	501	0.255072765321	243
4	503	0.256105562332	244
4	505	0.25660787313	245
4	507	0.25715926912	246
4	509	0.258123722685	247
4	511	0.259056125565	248
4	513	0.259700230273	249
4	515	0.259719610054	250
4	517	0.26035473777	251
4	519	0.260713664986	252
4	521	0.261972708503	253
4	523	0.263052028702	254
4	525	0.263391693435	255
4	527	0.26373429306	256
4	529	0.264217928747	257
4	531	0.265180303803	258
4	533	0.26656328301	259
4	535	0.26712324408	260
4	537	0.269230691685	261
4	539	0.269376265663	262
4	541	0.269484812761	263
4	543	0.269839036893	264
4	545	0.269935959648	265
4	547	0.270779848121	266
4	549	0.271216876135	267
4	551	0.272110605213	268
4	553	0.272913157199	269
4	555	0.273767236935	270
4	557	0.273801440353	271
4	559	0.274860449738	272
4	561	0.278332985217	273
4	563	0.279388834826	274
4	565	0.279775964918	275
4	567	0.280340575419	276
4	569	0.280590656914	277
4	571	0.282859290907	278
4	573	0.283011584532	279
4	575	0.283469757416	280
4	577	0.283572078031	281
4	579	0.284144539582	282
4	581	0.288282349343	283
4	583	0.290507264	284
4	585	0.290808829913	285
4	587	0.292449727491	286
4	589	0.293219804351	287
4	591	0.294436823846	288
4	593	0.295030897344	289
4	595	0.295136509988	290
4	597	0.295241391824	291
4	599	0.297760673954	292
4	601	0.29819501961	293
4	603	0.299447627135	294
4	605	0.300081089753	295
4	611	0.306846480273	295
4	613	0.308686213058	296
4	615	0.308848083145	297
4	617	0.311198260435	298
4	619	0.313224169252	299
4	621	0.313262452165	300
4	623	0.31343977774	301
4	625	0.314149695667	302
4	627	0.315105662091	303
4	629	0.315288200693	304
4	631	0.315420384403	305
4	633	0.316930207859	306
4	635	0.318814136746	307
4	637	0.320816123242	308
4	639	0.322462842343	309
4	641	0.322992845221	310
4	643	0.323834726183	311
4	645	0.323985517193	312
4	647	0.324508387223	313
4	649	0.324542174009	314
4	651	0.324613849393	315
4	653	0.328663696232	316
4	655	0.329859134798	317
4	657	0.330326407364	318
4	659	0.330930706436	319
4	661	0.331475563564	320
4	663	0.332755897768	321
4	665	0.33280781032	322
4	667	0.334820583056	323
4	669	0.335275494901	324
4	671	0.338985455493	325
4	673	0.339002223259	326
4	675	0.340938800496	327
4	677	0.341201129805	328
4	679	0.341212913037	329
4	681	0.342660707119	330
4	683	0.34310695994	331
4	685	0.345991571692	332
4	687	0.347300870056	333
4	689	0.348687161408	334
4	691	0.348875456383	335
4	693	0.349290068926	336
4	695	0.350026200026	337
4	697	0.350698660543	338
4	699	0.350754530596	339
4	701	0.351168509519	340
4	703	0.351391648727	341
4	705	0.351589478234	342
4	707	0.351608173704	343
4	709	0.351795692655	344
4	711	0.353374105377	345
4	713	0.353996702721	346
4	715	0.354250208426	347
4	717	0.356326239486	348
4	719	0.356749896587	349
4	721	0.359634440875	350
4	723	0.362266659738	351
4	725	0.363203798456	352
4	727	0.364422595259	353
4	729	0.365330559286	354
4	731	0.365362916091	355
4	733	0.366893747317	356
4	735	0.367073704659	357
4	737	0.367766904429	358
4	739	0.368738386587	359
4	741	0.368790069493	360
4	743	0.36965099313	361
4	745	0.370851964037	362
4	747	0.371123632107	363
4	749	0.376002764995	364
4	751	0.378724113251	365
4	753	0.379035081056	366
4	755	0.379986910764	367
4	757	0.381123507259	368
4	759	0.381890586914	369
4	761	0.383887758881	370
4	763	0.384779137458	371
4	765	0.386168814522	372
4	767	0.387478599893	373
4	769	0.390816534227	374
4	771	0.391190420723	375
4	773	0.391998400776	376
4	775	0.392506265899	377
4	777	0.392745018772	378
4	779	0.392980543345	379
4	781	0.393232141958	380
4	783	0.393438174006	381
4	785	0.393685033275	382
4	787	0.396574108867	383
4	789	0.397417087642	384
4	791	0.398762435075	385
4	793	0.399364114062	386
4	795	0.400038358632	387
4	803	0.403552837313	387
4	805	0.403810850077	388
4	807	0.40495198798	389
4	809	0.405245495632	390
4	811	0.405334649922	391
4	813	0.405394430885	392
4	815	0.405452503247	393
4	817	0.406022400812	394
4	819	0.406691514536	395
4	821	0.40706518433	396
4	823	0.409193854425	397
4	825	0.410385712529	398
4	827	0.414132407143	399
4	829	0.414606823433	400
4	831	0.415568263005	401
4	833	0.41576623074	402
4	835	0.416548206461	403
4	837	0.416573194814	404
4	839	0.418501554951	405
4	841	0.418571172622	406
4	843	0.419933104346	407
4	845	0.421070642852	408
4	847	0.421721873584	409
4	849	0.422326454802	410
4	851	0.423456810348	411
4	853	0.424225930149	412
4	855	0.425159990482	413
4	857	0.427429830498	414
4	859	0.428684033768	415
4	861	0.433323686294	416
4	863	0.433957616313	417
4	865	0.434202107335	418
4	867	0.434810940249	419
4	869	0.435898844683	420
4	871	0.438267762854	421
4	873	0.438573367756	422
4	875	0.438720963789	423
4	877	0.438741831008	424
4	879	0.43900218242	425
4	881	0.440422565876	426
4	883	0.442556129163	427
4	885	0.442941816857	428
4	887	0.445289660618	429
4	889	0.445773299005	430
4	891	0.44681114908	431
4	893	0.447698651008	432
4	895	0.448091224036	433
4	897	0.449869367373	434
4	899	0.450602735046	435
4	901	0.451594239339	436
4	903	0.451594294691	437
4	905	0.453655115932	438
4	907	0.454028879226	439
4	909	0.454348453881	440
4	911	0.45490262471	441
4	913	0.456502344152	442
4	915	0.458668107833	443
4	917	0.458873455602	444
4	919	0.460012513253	445
4	921	0.463065697923	446
4	923	0.463674742536	447
4	925	0.464837855819	448
4	927	0.465498358899	449
4	929	0.465741077393	450
4	931	0.467295740331	451
4	933	0.470240220608	452
4	935	0.470500860737	453
4	937	0.47181336873	454
4	939	0.473936115384	455
4	941	0.474229066842	456
4	943	0.474605496194	457
4	945	0.474845419713	458
4	947	0.478002515254	459
4	949	0.478732742919	460
4	951	0.479370931525	461
4	953	0.47939692927	462
4	955	0.480640280048	463
4	957	0.480872805066	464
4	959	0.481039679707	465
4	961	0.481592518078	466
4	963	0.482903490446	467
4	965	0.483372166922	468
4	967	0.484411372559	469
4	969	0.485034201869	470
4	971	0.485276121514	471
4	973	0.485601337532	472
4	975	0.485807695526	473
4	977	0.486691481182	474
4	979	0.488339557355	475
4	981	0.490333596556	476
4	983	0.49170827651	477
4	985	0.4918333091	478
4	987	0.4929567696	479
4	989	0.493685293443	480
4	991	0.494009492556	481
4	993	0.494151134591	482
4	995	0.494343396032	483
4	997	0.495605208705	484
4	999	0.49682420805	485
4	1001	0.497328487983	486
4	1003	0.497950524902	487
4	1005	0.498783903143	488
4	1007	0.500619166546	489
4	1010	0.50082162531	489
4	1015	0.501050869635	490
4	1017	0.501207345405	491
4	1019	0.501387619705	492
4	1021	0.502057160296	493
4	1023	0.502190500919	494
4	1025	0.502629956309	495
4	1027	0.503910380663	496
4	1029	0.506731016611	497
4	1031	0.506761942903	498
4	1033	0.508211497679	499
4	1035	0.509585840693	500
4	1037	0.510966803789	501
4	1039	0.511063971467	502
4	1041	0.513404463428	503
4	1043	0.513649661521	504
4	1045	0.513736770104	505
4	1047	0.51512008657	506
4	1049	0.515923478333	507
4	1051	0.517239104591	508
4	1053	0.51811731967	509
4	1055	0.518164007414	510
4	1057	0.521432503815	511
4	1059	0.521667159664	512
4	1061	0.522012679248	513
4	1063	0.522350833963	514
4	1065	0.5226263619	515
4	1067	0.523757280379	516
4	1069	0.523862967553	517
4	1071	0.523928080418	518
4	1073	0.523944646512	519
4	1075	0.524755787534	520
4	1077	0.52740834605	521
4	1079	0.527417629074	522
4	1081	0.528526038828	523
4	1083	0.530316028432	524
4	1085	0.531853857146	525
4	1087	0.536009828242	526
4	1089	0.536340738123	527
4	1091	0.537556428596	528
4	1093	0.538439309141	529
4	1095	0.538639751336	530
4	1097	0.538705843347	531
4	1099	0.539424089827	532
4	1101	0.540088897577	533
4	1103	0.540957463308	534
4	1105	0.544751487091	535
4	1107	0.54630049877	536
4	1109	0.548392055343	537
4	1111	0.549324667198	538
4	1113	0.549737397065	539
4	1115	0.549983812887	540
4	1117	0.553242733864	541
4	1119	0.553850013153	542
4	1121	0.554113590266	543
4	1123	0.55622447904	544
4	1125	0.559206679715	545
4	1127	0.559884481717	546
4	1129	0.56272112191	547
4	1131	0.563978358906	548
4	1133	0.565583817669	549
4	1135	0.566249660156	550
4	1137	0.567245123799	551
4	1139	0.568478004262	552
4	1141	0.570551765725	553
4	1143	0.571241200263	554
4	1145	0.571587953567	555
4	1147	0.57344938521	556
4	1149	0.575339486908	557
4	1151	0.575555583125	558
4	1153	0.576517595052	559
4	1155	0.578001837535	560
4	1157	0.57801516278	561
4	1159	0.581674820111	562
4	1161	0.582101355923	563
4	1163	0.584084104828	564
4	1165	0.584244438922	565
4	1167	0.585760507852	566
4	1169	0.589768457507	567
4	1171	0.593970316933	568
4	1173	0.594621114275	569
4	1175	0.596021789972	570
4	1177	0.59670973345	571
4	1179	0.596713789771	572
4	1181	0.597733976859	573
4	1183	0.598047974757	574
4	1185	0.598507766075	575
4	1187	0.599036233303	576
4	1189	0.59918345834	577
4	1191	0.59974246601	578
4	1199	0.60146909939	578
4	1201	0.601822695965	579
4	1203	0.602033229253	580
4	1205	0.602545943896	581
4	1207	0.603261989214	582
4	1209	0.603390569451	583
4	1211	0.603644580829	584
4	1213	0.607592214097	585
4	1215	0.607695182461	586
4	1217	0.608216261282	587
4	1219	0.610198151623	588
4	1221	0.611040287926	589
4	1223	0.614649228931	590
4	1225	0.615070222229	591
4	1227	0.618310185196	592
4	1229	0.619865479556	593
4	1231	0.622235867137	594
4	1233	0.622765828716	595
4	1235	0.62425325847	596
4	1237	0.624698407809	597
4	1239	0.625103590691	598
4	1241	0.625613581525	599
4	1243	0.625698161017	600
4	1245	0.626057454922	601
4	1247	0.626580422576	602
4	1249	0.62807305474	603
4	1251	0.628337325204	604
4	1253	0.630943897006	605
4	1255	0.631086022517	606
4	1257	0.631479524928	607
4	1259	0.631534432301	608
4	1261	0.63458929208	609
4	1263	0.635882439939	610
4	1265	0.63589648653	611
4	1267	0.63590797978	612
4	1269	0.636670403464	613
4	1271	0.638142607622	614
4	1273	0.638505849841	615
4	1275	0.638664783021	616
4	1277	0.640809168486	617
4	1279	0.640892030759	618
4	1281	0.641180543469	619
4	1283	0.641274418016	620
4	1285	0.642405796784	621
4	1287	0.643520684206	622
4	1289	0.645183649987	623
4	1291	0.645465174009	624
4	1293	0.646031068551	625
4	1295	0.646576726266	626
4	1297	0.647971595357	627
4	1299	0.648786613688	628
4	1301	0.650556233511	629
4	1303	0.652526291077	630
4	1305	0.65300276966	631
4	1307	0.654301215296	632
4	1309	0.65440274938	633
4	1311	0.654717909409	634
4	1313	0.655013811282	635
4	1315	0.655154779166	636
4	1317	0.656051108371	637
4	1319	0.656108074903	638
4	1321	0.656755249607	639
4	1323	0.657114210925	640
4	1325	0.657783513797	641
4	1327	0.658087485356	642
4	1329	0.658700924446	643
4	1331	0.659309988901	644
4	1333	0.660053572093	645
4	1335	0.661203313481	646
4	1337	0.661786737252	647
4	1339	0.662976233503	648
4	1341	0.664891075761	649
4	1343	0.665224479099	650
4	1345	0.665792649583	651
4	1347	0.666270567571	652
4	1349	0.668024282216	653
4	1351	0.668224137754	654
4	1353	0.66893614582	655
4	1355	0.670489891322	656
4	1357	0.670580228566	657
4	1359	0.670638756465	658
4	1361	0.671717683373	659
4	1363	0.672911696744	660
4	1365	0.673143117716	661
4	1367	0.674651332948	662
4	1369	0.676530451382	663
4	1371	0.678032864176	664
4	1373	0.679176554797	665
4	1375	0.679476879877	666
4	1377	0.679673341763	667
4	1379	0.680141448216	668
4	1381	0.680213867326	669
4	1383	0.681099627972	670
4	1385	0.681109363381	671
4	1387	0.681427947229	672
4	1389	0.683654031218	673
4	1391	0.684117421246	674
4	1393	0.684260674267	675
4	1395	0.684480142428	676
4	1397	0.685990604029	677
4	1399	0.686606523313	678
4	1401	0.689198971922	679
4	1403	0.689244609971	680
4	1405	0.690500503455	681
4	1407	0.692108921304	682
4	1409	0.692783872278	683
4	1411	0.692863951134	684
4	1413	0.69349788326	685
4	1415	0.694229428599	686
4	1417	0.696372528299	687
4	1419	0.696738979591	688
4	1421	0.697409211468	689
4	1423	0.69827087896	690
4	1425	0.698806283311	691
4	1431	0.702011092141	691
4	1433	0.702202388187	692
4	1435	0.703239633281	693
4	1437	0.703884541772	694
4	1439	0.703920544602	695
4	1441	0.705451393021	696
4	1443	0.706014218223	697
4	1445	0.706827116584	698
4	1447	0.707540500867	699
4	1449	0.707714696027	700
4	1451	0.708482949369	701
4	1453	0.708638234955	702
4	1455	0.709782030334	703
4	1457	0.710830319439	704
4	1459	0.711155490309	705
4	1461	0.711930332689	706
4	1463	0.712068285921	707
4	1465	0.712462343493	708
4	1467	0.712961035826	709
4	1469	0.713120047843	710
4	1471	0.716252877333	711
4	1473	0.71642707605	712
4	1475	0.716634261232	713
4	1477	0.716772848053	714
4	1479	0.719116087983	715
4	1481	0.719981026092	716
4	1483	0.720765863112	717
4	1485	0.720862660584	718
4	1487	0.721473143429	719
4	1489	0.72388715986	720
4	1491	0.72602458155	721
4	1493	0.726111198544	722
4	1495	0.726724802754	723
4	1497	0.728336134753	724
4	1499	0.729624096728	725
4	1501	0.731720733002	726
4	1503	0.732229935489	727
4	1505	0.732328055012	728
4	1507	0.734671924653	729
4	1509	0.735227583566	730
4	1511	0.736398847261	731
4	1513	0.737039820806	732
4	1515	0.73824253459	733
4	1517	0.739110504572	734
4	1519	0.739507585522	735
4	1521	0.740767226693	736
4	1523	0.742181010023	737
4	1525	0.742208452123	738
4	1527	0.743219221286	739
4	1529	0.744533743384	740
4	1531	0.744808206906	741
4	1533	0.746264767118	742
4	1535	0.746439762166	743
4	1537	0.746449576602	744
4	1539	0.748041132725	745
4	1541	0.748409715665	746
4	1543	0.751607970642	747
4	1545	0.751873063743	748
4	1547	0.752485809188	749
4	1549	0.753185834824	750
4	1551	0.754079836227	751
4	1553	0.75715291145	752
4	1555	0.759102888362	753
4	1557	0.759918906926	754
4	1559	0.760529964487	755
4	1561	0.76063251638	756
4	1563	0.763666458952	757
4	1565	0.764638469843	758
4	1567	0.765495904946	759
4	1569	0.767483844401	760
4	1571	0.769202913713	761
4	1573	0.76937445234	762
4	1575	0.771769632129	763
4	1577	0.776653131119	764
4	1579	0.778343366074	765
4	1581	0.778432198457	766
4	1583	0.77860585502	767
4	1585	0.778705076546	768
4	1587	0.779696356052	769
4	1589	0.780700407226	770
4	1591	0.78120862668	771
4	1593	0.784190406337	772
4	1595	0.78425517203	773
4	1597	0.787015776486	774
4	1599	0.787567480099	775
4	1601	0.788160561696	776
4	1603	0.788459890078	777
4	1605	0.789760727505	778
4	1607	0.791651456659	779
4	1609	0.793007175173	780
4	1611	0.793041047028	781
4	1613	0.793407752182	782
4	1615	0.796601514055	783
4	1617	0.796729087629	784
4	1619	0.797168164615	785
4	1621	0.797754933422	786
4	1623	0.798196088233	787
4	1625	0.798693297519	788
4	1627	0.798709760803	789
4	1629	0.799468725577	790
4	1631	0.799673577844	791
4	1639	0.801540218314	791
4	1641	0.802053145306	792
4	1643	0.802821607883	793
4	1645	0.805470796145	794
4	1647	0.806611075022	795
4	1649	0.806716007769	796
4	1651	0.807655509755	797
4	1653	0.810561429359	798
4	1655	0.810665100196	799
4	1657	0.812701394383	800
4	1659	0.812797935662	801
4	1661	0.813403369444	802
4	1663	0.813460962361	803
4	1665	0.813856527961	804
4	1667	0.813947035431	805
4	1669	0.814211970369	806
4	1671	0.81448269476	807
4	1673	0.815435817298	808
4	1675	0.817265359454	809
4	1677	0.817298993375	810
4	1679	0.818037913395	811
4	1681	0.818053642519	812
4	1683	0.818773287417	813
4	1685	0.81933329579	814
4	1687	0.820382637956	815
4	1689	0.820453139904	816
4	1691	0.821239698996	817
4	1693	0.821529972411	818
4	1695	0.821562976396	819
4	1697	0.821812927213	820
4	1699	0.822680789083	821
4	1701	0.822972735155	822
4	1703	0.82444715738	823
4	1705	0.824587633097	824
4	1707	0.825059601185	825
4	1709	0.82507171043	826
4	1711	0.8257470663	827
4	1713	0.825869781307	828
4	1715	0.829867344784	829
4	1717	0.83083093748	830
4	1719	0.831111513406	831
4	1721	0.834771075524	832
4	1723	0.835239996851	833
4	1725	0.839880276847	834
4	1727	0.839927011749	835
4	1729	0.840453042545	836
4	1731	0.840824204266	837
4	1733	0.841002081024	838
4	1735	0.842783015699	839
4	1737	0.843801233278	840
4	1739	0.845446416705	841
4	1741	0.846120360149	842
4	1743	0.847142078496	843
4	1745	0.851689902348	844
4	1747	0.852148930275	845
4	1749	0.852216464432	846
4	1751	0.852591526375	847
4	1753	0.854120465246	848
4	1755	0.855739126312	849
4	1757	0.856079363532	850
4	1759	0.856152415189	851
4	1761	0.856428720382	852
4	1763	0.857579382975	853
4	1765	0.858665586286	854
4	1767	0.85914479898	855
4	1769	0.859427245692	856
4	1771	0.860432179001	857
4	1773	0.861528371562	858
4	1775	0.864144012494	859
4	1777	0.864872390067	860
4	1779	0.866796128638	861
4	1781	0.86734793076	862
4	1783	0.868036444648	863
4	1785	0.868845424343	864
4	1787	0.869403751132	865
4	1789	0.869742097251	866
4	1791	0.871471216889	867
4	1793	0.872697349101	868
4	1795	0.874037625063	869
4	1797	0.874573523858	870
4	1799	0.875166181276	871
4	1801	0.875613321179	872
4	1803	0.87908396626	873
4	1805	0.880848053652	874
4	1807	0.88129929245	875
4	1809	0.883889118595	876
4	1811	0.884395841809	877
4	1813	0.88444294108	878
4	1815	0.885784960821	879
4	1817	0.886049743094	880
4	1819	0.886645914985	881
4	1821	0.887074422589	882
4	1823	0.889843567072	883
4	1825	0.891530785361	884
4	1827	0.891828158889	885
4	1829	0.896061174685	886
4	1831	0.896542052909	887
4	1833	0.900014908615	888
4	1839	0.901209398559	888
4	1841	0.903562733327	889
4	1843	0.905836440494	890
4	1845	0.906188207879	891
4	1847	0.906317246382	892
4	1849	0.91114696663	893
4	1851	0.911423439347	894
4	1853	0.911710348442	895
4	1855	0.911969460698	896
4	1857	0.912081405239	897
4	1859	0.912753788141	898
4	1861	0.915768756413	899
4	1863	0.917989970596	900
4	1865	0.918255787145	901
4	1867	0.918699121541	902
4	1869	0.919869557271	903
4	1871	0.920356076411	904
4	1873	0.92041620478	905
4	1875	0.922901835864	906
4	1877	0.924213798945	907
4	1879	0.924334630341	908
4	1881	0.926469332736	909
4	1883	0.92746663166	910
4	1885	0.927784686205	911
4	1887	0.927927189151	912
4	1889	0.928403704972	913
4	1891	0.928872500664	914
4	1893	0.92934137882	915
4	1895	0.92973354011	916
4	1897	0.93111499919	917
4	1899	0.932254794597	918
4	1901	0.932526350389	919
4	1903	0.934113707619	920
4	1905	0.934302272343	921
4	1907	0.935003317852	922
4	1909	0.935599867769	923
4	1911	0.935951189051	924
4	1913	0.936314267891	925
4	1915	0.938485493772	926
4	1917	0.94031302004	927
4	1919	0.940746684895	928
4	1921	0.941018154861	929
4	1923	0.942359056586	930
4	1925	0.943056994135	931
4	1927	0.943867487282	932
4	1929	0.94672491263	933
4	1931	0.946949955124	934
4	1933	0.947955070773	935
4	1935	0.948750292974	936
4	1937	0.950769877477	937
4	1939	0.951503102816	938
4	1941	0.954320014546	939
4	1943	0.954748926382	940
4	1945	0.956138284889	941
4	1947	0.956163212985	942
4	1949	0.95736577033	943
4	1951	0.957526912909	944
4	1953	0.960967856957	945
4	1955	0.96110925007	946
4	1957	0.966294379493	947
4	1959	0.967525098344	948
4	1961	0.96812625299	949
4	1963	0.969360932866	950
4	1965	0.969434439243	951
4	1967	0.970380540984	952
4	1969	0.970726974311	953
4	1971	0.971841432543	954
4	1973	0.972006725555	955
4	1975	0.972600056123	956
4	1977	0.973140458821	957
4	1979	0.974331440274	958
4	1981	0.974472185429	959
4	1983	0.974947525099	960
4	1985	0.975874163699	961
4	1987	0.975979559829	962
4	1989	0.976462135044	963
4	1991	0.979687451128	964
4	1993	0.981944927919	965
4	1995	0.982020119728	966
4	1997	0.98545574312	967
4	1999	0.985475232413	968
4	2001	0.986266841508	969
4	2003	0.990157751598	970
4	2005	0.990479091901	971
4	2007	0.990639821942	972
4	2009	0.991536874956	973
4	2011	0.991836227959	974
4	2013	0.994106938066	975
4	2015	0.994349683503	976
4	2017	0.994871794807	977
4	2019	0.995739086826	978
4	2021	0.996542223598	979
4	2023	1.000261631909	980
4	2025	1.000578609289	981
4	2030	1.000897450337	981
4	2035	1.001505235101	982
4	2037	1.005014298652	983
4	2039	1.005527984265	984
4	2041	1.005553812309	985
4	2043	1.00583938123	986
4	2045	1.008029027945	987
4	2047	1.008733977266	988
4	2049	1.009967065993	989
4	2051	1.010338681748	990
4	2053	1.010664098465	991
4	2055	1.011130962809	992
4	2057	1.013383455679	993
4	2059	1.01412783394	994
4	2061	1.01415471456	995
4	2063	1.015543391834	996
4	2065	1.016525920177	997
4	2067	1.016931646521	998
4	2069	1.017331441793	999
4	2071	1.019910554924	1000
4	2073	1.023325479826	1001
4	2075	1.025308292406	1002
4	2077	1.025492908279	1003
4	2079	1.025542823881	1004
4	2081	1.027860349944	1005
4	2083	1.028152900545	1006
4	2085	1.028553282076	1007
4	2087	1.029144117296	1008
4	2089	1.031344446616	1009
4	2091	1.031454962493	1010
4	2093	1.032173328328	1011
4	2095	1.032601769357	1012
4	2097	1.033316403544	1013
4	2099	1.034663852368	1014
4	2101	1.035152960779	1015
4	2103	1.036294004113	1016
4	2105	1.037049215931	1017
4	2107	1.038023094522	1018
4	2109	1.040918212139	1019
4	2111	1.04215791022	1020
4	2113	1.044391550071	1021
4	2115	1.044620867243	1022
4	2117	1.045751324441	1023
4	2119	1.0461694161	1024
4	2121	1.047188369281	1025
4	2123	1.048316129715	1026
4	2125	1.049111002551	1027
4	2127	1.051224909366	1028
4	2129	1.051543302382	1029
4	2131	1.052327859079	1030
4	2133	1.052488343186	1031
4	2135	1.05282060381	1032
4	2137	1.05476065202	1033
4	2139	1.054791353793	1034
4	2141	1.055799367333	1035
4	2143	1.05703840384	1036
4	2145	1.057394569622	1037
4	2147	1.057402484969	1038
4	2149	1.058019078058	1039
4	2151	1.058485375084	1040
4	2153	1.058510208292	1041
4	2155	1.05926637454	1042
4	2157	1.060082967229	1043
4	2159	1.062635443723	1044
4	2161	1.063083531691	1045
4	2163	1.063177287079	1046
4	2165	1.063875868085	1047
4	2167	1.06439664695	1048
4	2169	1.064563442708	1049
4	2171	1.064588056352	1050
4	2173	1.065142324825	1051
4	2175	1.065561804148	1052
4	2177	1.067928094412	1053
4	2179	1.068901566956	1054
4	2181	1.068910114975	1055
4	2183	1.069237325356	1056
4	2185	1.072706719195	1057
4	2187	1.072942125062	1058
4	2189	1.074116195199	1059
4	2191	1.074239157766	1060
4	2193	1.074343870039	1061
4	2195	1.075204584747	1062
4	2197	1.075546759439	1063
4	2199	1.076735088599	1064
4	2201	1.077509605387	1065
4	2203	1.07862421639	1066
4	2205	1.079912106629	1067
4	2207	1.082885314968	1068
4	2209	1.083377756344	1069
4	2211	1.083380463219	1070
4	2213	1.083638048085	1071
4	2215	1.08467989255	1072
4	2217	1.085286604959	1073
4	2219	1.086203876756	1074
4	2221	1.089782378482	1075
4	2223	1.090670907194	1076
4	2225	1.092465580308	1077
4	2227	1.095756229138	1078
4	2229	1.098218873407	1079
4	2231	1.098235889031	1080
4	2233	1.099336357561	1081
4	2235	1.100528673335	1082
4	2241	1.10110968199	1082
4	2243	1.10278996439	1083
4	2245	1.103945439119	1084
4	2247	1.104658395598	1085
4	2249	1.105704220891	1086
4	2251	1.106110633758	1087
4	2253	1.106140165569	1088
4	2255	1.10770482212	1089
4	2257	1.110224710814	1090
4	2259	1.110327012595	1091
4	2261	1.111108897018	1092
4	2263	1.11169235719	1093
4	2265	1.116418752387	1094
4	2267	1.117152622354	1095
4	2269	1.117635675378	1096
4	2271	1.118819703114	1097
4	2273	1.120463056349	1098
4	2275	1.120558340832	1099
4	2277	1.121176393209	1100
4	2279	1.121434852458	1101
4	2281	1.123188300576	1102
4	2283	1.123716444567	1103
4	2285	1.124491058303	1104
4	2287	1.125467350326	1105
4	2289	1.127650064215	1106
4	2291	1.129830084662	1107
4	2293	1.131951239119	1108
4	2295	1.132915738881	1109
4	2297	1.133313687276	1110
4	2299	1.13345693598	1111
4	2301	1.133975163828	1112