version 3
run General-0-20240531-18:17:38-9781
attr configname General
attr datetime 20240531-18:17:38
attr datetimef 20240531-181738
attr experiment General
attr inifile omnetpp.ini
attr iterationvars ""
attr iterationvarsd ""
attr iterationvarsf ""
attr measurement ""
attr network Network
attr processid 9781
attr repetition 0
attr replication #0
attr resultdir results
attr runnumber 0
attr seedset 0
config network Network
config sim-time-limit 200s
config Network.node[{0,2}].app.interArrivalTime exponential(1)
config Network.node[{0,2}].app.packetByteSize 125000
config Network.node[{0,2}].app.destination 5

vector 0 Network.node[0].lnk[0] "Buffer Size" ETV
vector 1 Network.node[1].lnk[0] "Buffer Size" ETV
vector 2 Network.node[2].lnk[0] "Buffer Size" ETV
vector 3 Network.node[3].lnk[0] "Buffer Size" ETV
vector 4 Network.node[4].lnk[0] "Buffer Size" ETV
vector 5 Network.node[5].lnk[0] "Buffer Size" ETV
vector 6 Network.node[6].lnk[0] "Buffer Size" ETV
vector 7 Network.node[7].lnk[0] "Buffer Size" ETV
vector 8 Network.node[2].lnk[1] "Buffer Size" ETV
vector 9 Network.node[3].lnk[1] "Buffer Size" ETV
vector 10 Network.node[4].lnk[1] "Buffer Size" ETV
vector 11 Network.node[5].app Delay ETV
vector 12 Network.node[5].app CantHops ETV
0	1	0	1
0	9	0	0
0	42	0.000116	1
0	50	0.000116	0
0	83	0.000232	1
0	91	0.000232	0
0	124	0.000348	1
0	132	0.000348	0
0	165	0.000464	1
0	173	0.000464	0
0	206	0.00058	1
0	214	0.00058	0
0	247	0.000696	1
0	255	0.000696	0
0	288	0.000812	1
0	296	0.000812	0
0	323	0.898560388484	1
0	324	0.898560388484	0
0	327	1.821783519955	1
0	332	1.898560388484	0
0	357	3.773328855839	1
0	358	3.773328855839	0
0	380	4.324377342509	1
0	385	4.773328855839	0
0	404	5.301383768902	1
0	414	5.773328855839	0
0	426	5.786511932624	1
0	435	6.139671071762	2
0	438	6.198055740855	3
0	449	6.773328855839	2
0	476	7.773328855839	1
0	505	8.773328855839	0
0	529	9.512968020783	1
0	533	9.773328855839	0
0	576	11.081864138406	1
0	577	11.081864138406	0
0	605	11.834538251719	1
0	606	12.081864138406	0
0	632	12.673971104619	1
0	637	13.081864138406	0
0	689	14.482340368894	1
0	690	14.482340368894	0
0	693	14.556025724359	1
0	696	14.967603720602	2
0	699	15.058764746726	3
0	728	15.482340368894	2
0	742	16.103377255034	3
0	756	16.482340368894	2
0	779	17.482340368894	1
0	809	18.482340368894	0
0	831	19.25354718371	1
0	845	19.482340368894	0
0	891	21.294439399622	1
0	892	21.294439399622	0
0	917	21.9361485723	1
0	918	22.294439399622	0
0	960	23.541388129362	1
0	961	23.541388129362	0
0	985	25.155390204255	1
0	986	25.155390204255	0
0	1001	25.890354625445	1
0	1007	26.155390204255	0
0	1018	27.026293567155	1
0	1031	27.152167976593	2
0	1032	27.155390204255	1
0	1054	28.155390204255	0
0	1079	28.427395678817	1
0	1082	28.582125359317	2
0	1089	29.155390204255	1
0	1115	29.352960017784	2
0	1116	30.155390204255	1
0	1145	30.774324697878	2
0	1146	31.155390204255	1
0	1170	31.512151989634	2
0	1173	31.624098150267	3
0	1178	32.155390204255	2
0	1194	32.159663870495	3
0	1200	32.466944222648	4
0	1206	32.673147504678	5
0	1212	33.155390204255	4
0	1238	34.008437689302	5
0	1243	34.155390204255	4
0	1262	34.617520112485	5
0	1265	34.762798139777	6
0	1268	34.781766708978	7
0	1282	35.155390204255	6
0	1298	35.173537519655	7
0	1320	36.134918458721	8
0	1321	36.155390204255	7
0	1340	36.386360390796	8
0	1343	36.874917440104	9
0	1357	37.155390204255	8
0	1387	38.155390204255	7
0	1414	39.155390204255	6
0	1433	39.752832461382	7
0	1447	40.155390204255	6
0	1463	40.3505785382	7
0	1469	40.796097033251	8
0	1483	41.155390204255	7
0	1499	41.370629439992	8
0	1516	42.155390204255	7
0	1552	43.155390204255	6
0	1568	43.696980501686	7
0	1582	44.155390204255	6
0	1598	44.795892969237	7
0	1612	45.155390204255	6
0	1628	45.854727100725	7
0	1642	46.155390204255	6
0	1668	46.965324546412	7
0	1679	47.10335323484	8
0	1680	47.155390204255	7
0	1708	48.155390204255	6
0	1724	48.492395924631	7
0	1740	48.944497984856	8
0	1747	49.155390204255	7
0	1779	49.788925778384	8
0	1780	50.155390204255	7
0	1810	51.155390204255	6
0	1837	52.155390204255	5
0	1864	53.155390204255	4
0	1897	54.155390204255	3
0	1913	54.24342262456	4
0	1916	54.477724143336	5
0	1933	55.155390204255	4
0	1952	55.485743388756	5
0	1966	56.155390204255	4
0	1995	56.54448610385	5
0	1996	57.155390204255	4
0	2012	57.416401957476	5
0	2028	57.708482490743	6
0	2029	58.155390204255	5
0	2045	58.243547167826	6
0	2061	58.871488748817	7
0	2062	59.155390204255	6
0	2078	59.51526975042	7
0	2094	59.795546758899	8
0	2095	60.155390204255	7
0	2128	60.77241083297	8
0	2135	61.155390204255	7
0	2151	61.184912062892	8
0	2168	62.155390204255	7
0	2184	62.252984260042	8
0	2187	62.401696529294	9
0	2207	63.155390204255	8
0	2236	63.908331862567	9
0	2237	64.155390204255	8
0	2253	64.368345820307	9
0	2267	65.155390204255	8
0	2283	65.454615201185	9
0	2306	66.155390204255	8
0	2336	67.155390204255	7
0	2352	67.174946858902	8
0	2366	68.155390204255	7
0	2382	68.294761224656	8
0	2385	68.395795999965	9
0	2402	69.155390204255	8
0	2429	70.155390204255	7
0	2456	71.155390204255	6
0	2485	71.969384372309	7
0	2486	72.155390204255	6
0	2515	73.155390204255	5
0	2542	74.074705673101	6
0	2545	74.132032599525	7
0	2546	74.155390204255	6
0	2572	75.060511096426	7
0	2573	75.155390204255	6
0	2602	75.660457983067	7
0	2603	76.155390204255	6
0	2627	77.004703255219	7
0	2630	77.024893383365	8
0	2633	77.064869682423	9
0	2634	77.155390204255	8
0	2657	77.64774807129	9
0	2664	78.155390204255	8
0	2689	79.155390204255	7
0	2719	80.155390204255	6
0	2752	81.155390204255	5
0	2781	81.539318194135	6
0	2784	82.074202569892	7
0	2785	82.155390204255	6
0	2815	83.155390204255	5
0	2848	84.155390204255	4
0	2877	84.578114352977	5
0	2881	85.155390204255	4
0	2910	85.410957869043	5
0	2917	86.155390204255	4
0	2947	87.155390204255	3
0	2979	87.41419839155	4
0	2982	87.512848699968	5
0	2983	88.155390204255	4
0	3010	89.155390204255	3
0	3042	90.053153207927	4
0	3045	90.139923690267	5
0	3046	90.155390204255	4
0	3079	91.155390204255	3
0	3112	92.155390204255	2
0	3144	92.789179618943	3
0	3147	92.930510332504	4
0	3148	93.155390204255	3
0	3177	93.972290986683	4
0	3178	94.155390204255	3
0	3208	95.155390204255	2
0	3224	95.232224796792	3
0	3240	95.573878963818	4
0	3243	95.88139668758	5
0	3249	96.083747126147	6
0	3250	96.155390204255	5
0	3282	96.966876168106	6
0	3285	96.987188626902	7
0	3286	97.155390204255	6
0	3302	97.167440878887	7
0	3328	98.155390204255	6
0	3357	98.9331819513	7
0	3361	99.155390204255	6
0	3393	99.776264983448	7
0	3394	100.155390204255	6
0	3429	101.105022857198	7
0	3430	101.155390204255	6
0	3459	101.672927010678	7
0	3462	101.958947983186	8
0	3463	102.155390204255	7
0	3490	103.155390204255	6
0	3506	103.36997239248	7
0	3520	104.155390204255	6
0	3536	104.228365360309	7
0	3555	104.732709166897	8
0	3556	105.155390204255	7
0	3589	106.155390204255	6
0	3618	106.996442742758	7
0	3622	107.155390204255	6
0	3638	107.248862735649	7
0	3652	108.155390204255	6
0	3679	109.155390204255	5
0	3709	110.155390204255	4
0	3725	110.301144392533	5
0	3744	110.893768419985	6
0	3748	111.155390204255	5
0	3775	112.155390204255	4
0	3804	112.767228299842	5
0	3805	113.155390204255	4
0	3834	113.969466867089	5
0	3837	114.092993514451	6
0	3838	114.155390204255	5
0	3867	114.446013647725	6
0	3871	115.155390204255	5
0	3900	115.902832206289	6
0	3901	116.155390204255	5
0	3930	116.433554702906	6
0	3936	116.938573450661	7
0	3937	117.155390204255	6
0	3970	118.155390204255	5
0	4002	119.068072846729	6
0	4003	119.155390204255	5
0	4033	120.155390204255	4
0	4060	121.155390204255	3
0	4076	121.202903296712	4
0	4090	122.155390204255	3
0	4106	122.382286230357	4
0	4123	123.155390204255	3
0	4139	123.270147640794	4
0	4156	124.155390204255	3
0	4172	124.34798252493	4
0	4191	125.109850296226	5
0	4192	125.155390204255	4
0	4208	125.371907537901	5
0	4222	126.155390204255	4
0	4251	126.404704548546	5
0	4254	126.907015346807	6
0	4255	127.155390204255	5
0	4284	127.458411336941	6
0	4289	128.155390204255	5
0	4313	128.422864902435	6
0	4327	129.066969610758	7
0	4328	129.155390204255	6
0	4350	129.425896826628	7
0	4361	130.155390204255	6
0	4380	130.505217025284	7
0	4399	130.847816649982	8
0	4400	131.155390204255	7
0	4432	131.810191705753	8
0	4433	132.155390204255	7
0	4449	132.370152775827	8
0	4472	133.155390204255	7
0	4505	134.155390204255	6
0	4524	134.477600380777	7
0	4541	135.155390204255	6
0	4557	135.371329459083	7
0	4577	136.155390204255	6
0	4593	136.225409194726	7
0	4610	137.155390204255	6
0	4643	138.155390204255	5
0	4676	139.155390204255	4
0	4705	139.697944674008	5
0	4708	139.850238299262	6
0	4709	140.155390204255	5
0	4725	140.30841118322	6
0	4728	140.410731798073	7
0	4744	140.983193349501	8
0	4748	141.155390204255	7
0	4775	142.155390204255	6
0	4802	143.155390204255	5
0	4835	144.155390204255	4
0	4864	145.121003110011	5
0	4865	145.155390204255	4
0	4897	145.891079969557	5
0	4898	146.155390204255	4
0	4914	146.485153467881	5
0	4920	146.59076611151	6
0	4940	147.155390204255	5
0	4967	148.155390204255	4
0	5002	149.110048241593	5
0	5003	149.155390204255	4
0	5030	150.155390204255	3
0	5059	150.94978102667	4
0	5062	151.111651113382	5
0	5063	151.155390204255	4
0	5090	152.155390204255	3
0	5117	153.155390204255	2
0	5133	153.461828403133	3
0	5147	154.155390204255	2
0	5174	155.155390204255	1
0	5190	155.487737220236	2
0	5193	155.526020133121	3
0	5212	155.703345708266	4
0	5213	156.155390204255	3
0	5248	156.659312132188	4
0	5252	157.155390204255	3
0	5279	158.155390204255	2
0	5295	158.169135587797	3
0	5312	159.155390204255	2
0	5339	160.155390204255	1
0	5355	160.171122083323	2
0	5374	160.70112496146	3
0	5377	160.851915971654	4
0	5384	161.155390204255	3
0	5403	161.374786001742	4
0	5417	162.155390204255	3
0	5433	162.570224568024	4
0	5449	163.037497134434	5
0	5450	163.155390204255	4
0	5466	163.641796206282	5
0	5480	164.155390204255	4
0	5496	164.186653334427	5
0	5510	165.155390204255	4
0	5532	165.466987538239	5
0	5548	165.921899383031	6
0	5549	166.155390204255	5
0	5576	167.155390204255	4
0	5609	168.155390204255	3
0	5636	169.155390204255	2
0	5661	169.631859974935	3
0	5677	170.078112795454	4
0	5678	170.155390204255	3
0	5708	171.155390204255	2
0	5735	172.155390204255	1
0	5767	172.962724547556	2
0	5770	173.151019522775	3
0	5771	173.155390204255	2
0	5787	173.565632065434	3
0	5804	174.155390204255	2
0	5820	174.301763165421	3
0	5826	174.35763321831	4
0	5829	174.580772426411	5
0	5851	174.77860193387	6
0	5855	175.155390204255	5
0	5888	176.155390204255	4
0	5904	176.357014655976	5
0	5920	176.780671757333	6
0	5921	177.155390204255	5
0	5951	178.155390204255	4
0	5978	179.155390204255	3
0	6007	179.66521604574	4
0	6008	180.155390204255	3
0	6027	180.602354763463	4
0	6041	181.155390204255	3
0	6057	181.510318790788	4
0	6060	181.542675595433	5
0	6080	182.155390204255	4
0	6112	183.0735068217	5
0	6115	183.125189727495	6
0	6116	183.155390204255	5
0	6148	183.986113364176	6
0	6149	184.155390204255	5
0	6165	184.257781434518	6
0	6182	185.155390204255	5
0	6209	186.155390204255	4
0	6236	187.155390204255	3
0	6269	188.155390204255	2
0	6301	189.136914322512	3
0	6302	189.155390204255	2
0	6331	189.903993977084	3
0	6335	190.155390204255	2
0	6365	191.155390204255	1
0	6394	191.901165944574	2
0	6395	192.155390204255	1
0	6425	193.155390204255	0
0	6441	193.210951315936	1
0	6444	193.584837811839	2
0	6458	194.155390204255	1
0	6474	194.392817865238	2
0	6490	194.900682987925	3
0	6493	195.139435860773	4
0	6494	195.155390204255	3
0	6510	195.374960434192	4
0	6516	195.626559047305	5
0	6535	195.873418316104	6
0	6536	196.155390204255	5
0	6565	196.716397091518	6
0	6566	197.155390204255	5
0	6595	198.061744524752	6
0	6596	198.155390204255	5
0	6624	198.663423511276	6
0	6625	199.155390204255	5
1	2	0	1
1	10	0	0
1	43	0.000116	1
1	51	0.000116	0
1	84	0.000232	1
1	92	0.000232	0
1	125	0.000348	1
1	133	0.000348	0
1	166	0.000464	1
1	174	0.000464	0
1	207	0.00058	1
1	215	0.00058	0
1	248	0.000696	1
1	256	0.000696	0
1	281	0.000812	1
1	289	0.000812	0
2	3	0	1
2	11	0	0
2	44	0.000116	1
2	52	0.000116	0
2	85	0.000232	1
2	93	0.000232	0
2	126	0.000348	1
2	134	0.000348	0
2	167	0.000464	1
2	175	0.000464	0
2	208	0.00058	1
2	216	0.00058	0
2	241	0.000696	1
2	249	0.000696	0
2	282	0.000812	1
2	290	0.000812	0
3	4	0	1
3	12	0	0
3	45	0.000116	1
3	53	0.000116	0
3	86	0.000232	1
3	94	0.000232	0
3	127	0.000348	1
3	135	0.000348	0
3	168	0.000464	1
3	176	0.000464	0
3	201	0.00058	1
3	209	0.00058	0
3	242	0.000696	1
3	250	0.000696	0
3	283	0.000812	1
3	291	0.000812	0
4	5	0	1
4	13	0	0
4	46	0.000116	1
4	54	0.000116	0
4	87	0.000232	1
4	95	0.000232	0
4	128	0.000348	1
4	136	0.000348	0
4	161	0.000464	1
4	169	0.000464	0
4	202	0.00058	1
4	210	0.00058	0
4	243	0.000696	1
4	251	0.000696	0
4	284	0.000812	1
4	292	0.000812	0
5	6	0	1
5	14	0	0
5	47	0.000116	1
5	55	0.000116	0
5	88	0.000232	1
5	96	0.000232	0
5	121	0.000348	1
5	129	0.000348	0
5	162	0.000464	1
5	170	0.000464	0
5	203	0.00058	1
5	211	0.00058	0
5	244	0.000696	1
5	252	0.000696	0
5	285	0.000812	1
5	293	0.000812	0
6	7	0	1
6	15	0	0
6	48	0.000116	1
6	56	0.000116	0
6	81	0.000232	1
6	89	0.000232	0
6	122	0.000348	1
6	130	0.000348	0
6	163	0.000464	1
6	171	0.000464	0
6	204	0.00058	1
6	212	0.00058	0
6	245	0.000696	1
6	253	0.000696	0
6	286	0.000812	1
6	294	0.000812	0
6	353	2.898760388484	1
6	354	2.898760388484	0
6	373	3.898760388484	1
6	374	3.898760388484	0
6	422	5.773528855839	1
6	423	5.773528855839	0
6	458	6.773528855839	1
6	459	6.773528855839	0
6	485	7.773528855839	1
6	486	7.773528855839	0
6	514	8.773528855839	1
6	515	8.773528855839	0
6	542	9.773528855839	1
6	543	9.773528855839	0
6	569	10.773528855839	1
6	570	10.773528855839	0
6	598	11.773528855839	1
6	599	11.773528855839	0
6	645	13.082064138406	1
6	646	13.082064138406	0
6	669	14.082064138406	1
6	670	14.082064138406	0
6	704	15.082064138406	1
6	705	15.082064138406	0
6	764	16.482540368894	1
6	765	16.482540368894	0
6	788	17.482540368894	1
6	789	17.482540368894	0
6	818	18.482540368894	1
6	819	18.482540368894	0
6	854	19.482540368894	1
6	855	19.482540368894	0
6	881	20.482540368894	1
6	882	20.482540368894	0
6	910	21.482540368894	1
6	911	21.482540368894	0
6	948	23.294639399622	1
6	949	23.294639399622	0
6	966	24.294639399622	1
6	967	24.294639399622	0
6	994	25.541588129362	1
6	995	25.541588129362	0
6	1040	27.155590204255	1
6	1041	27.155590204255	0
6	1063	28.155590204255	1
6	1064	28.155590204255	0
6	1098	29.155590204255	1
6	1099	29.155590204255	0
6	1125	30.155590204255	1
6	1126	30.155590204255	0
6	1155	31.155590204255	1
6	1156	31.155590204255	0
6	1187	32.155590204255	1
6	1188	32.155590204255	0
6	1221	33.155590204255	1
6	1222	33.155590204255	0
6	1252	34.155590204255	1
6	1253	34.155590204255	0
6	1291	35.155590204255	1
6	1292	35.155590204255	0
6	1330	36.155590204255	1
6	1331	36.155590204255	0
6	1366	37.155590204255	1
6	1367	37.155590204255	0
6	1396	38.155590204255	1
6	1397	38.155590204255	0
6	1423	39.155590204255	1
6	1424	39.155590204255	0
6	1456	40.155590204255	1
6	1457	40.155590204255	0
6	1492	41.155590204255	1
6	1493	41.155590204255	0
6	1525	42.155590204255	1
6	1526	42.155590204255	0
6	1561	43.155590204255	1
6	1562	43.155590204255	0
6	1591	44.155590204255	1
6	1592	44.155590204255	0
6	1621	45.155590204255	1
6	1622	45.155590204255	0
6	1651	46.155590204255	1
6	1652	46.155590204255	0
6	1689	47.155590204255	1
6	1690	47.155590204255	0
6	1717	48.155590204255	1
6	1718	48.155590204255	0
6	1756	49.155590204255	1
6	1757	49.155590204255	0
6	1789	50.155590204255	1
6	1790	50.155590204255	0
6	1819	51.155590204255	1
6	1820	51.155590204255	0
6	1846	52.155590204255	1
6	1847	52.155590204255	0
6	1873	53.155590204255	1
6	1874	53.155590204255	0
6	1906	54.155590204255	1
6	1907	54.155590204255	0
6	1942	55.155590204255	1
6	1943	55.155590204255	0
6	1975	56.155590204255	1
6	1976	56.155590204255	0
6	2005	57.155590204255	1
6	2006	57.155590204255	0
6	2038	58.155590204255	1
6	2039	58.155590204255	0
6	2071	59.155590204255	1
6	2072	59.155590204255	0
6	2104	60.155590204255	1
6	2105	60.155590204255	0
6	2144	61.155590204255	1
6	2145	61.155590204255	0
6	2177	62.155590204255	1
6	2178	62.155590204255	0
6	2216	63.155590204255	1
6	2217	63.155590204255	0
6	2246	64.155590204255	1
6	2247	64.155590204255	0
6	2276	65.155590204255	1
6	2277	65.155590204255	0
6	2315	66.155590204255	1
6	2316	66.155590204255	0
6	2345	67.155590204255	1
6	2346	67.155590204255	0
6	2375	68.155590204255	1
6	2376	68.155590204255	0
6	2411	69.155590204255	1
6	2412	69.155590204255	0
6	2438	70.155590204255	1
6	2439	70.155590204255	0
6	2465	71.155590204255	1
6	2466	71.155590204255	0
6	2495	72.155590204255	1
6	2496	72.155590204255	0
6	2524	73.155590204255	1
6	2525	73.155590204255	0
6	2555	74.155590204255	1
6	2556	74.155590204255	0
6	2582	75.155590204255	1
6	2583	75.155590204255	0
6	2612	76.155590204255	1
6	2613	76.155590204255	0
6	2643	77.155590204255	1
6	2644	77.155590204255	0
6	2673	78.155590204255	1
6	2674	78.155590204255	0
6	2698	79.155590204255	1
6	2699	79.155590204255	0
6	2728	80.155590204255	1
6	2729	80.155590204255	0
6	2761	81.155590204255	1
6	2762	81.155590204255	0
6	2794	82.155590204255	1
6	2795	82.155590204255	0
6	2824	83.155590204255	1
6	2825	83.155590204255	0
6	2857	84.155590204255	1
6	2858	84.155590204255	0
6	2890	85.155590204255	1
6	2891	85.155590204255	0
6	2926	86.155590204255	1
6	2927	86.155590204255	0
6	2956	87.155590204255	1
6	2957	87.155590204255	0
6	2992	88.155590204255	1
6	2993	88.155590204255	0
6	3019	89.155590204255	1
6	3020	89.155590204255	0
6	3055	90.155590204255	1
6	3056	90.155590204255	0
6	3088	91.155590204255	1
6	3089	91.155590204255	0
6	3121	92.155590204255	1
6	3122	92.155590204255	0
6	3157	93.155590204255	1
6	3158	93.155590204255	0
6	3187	94.155590204255	1
6	3188	94.155590204255	0
6	3217	95.155590204255	1
6	3218	95.155590204255	0
6	3259	96.155590204255	1
6	3260	96.155590204255	0
6	3295	97.155590204255	1
6	3296	97.155590204255	0
6	3337	98.155590204255	1
6	3338	98.155590204255	0
6	3370	99.155590204255	1
6	3371	99.155590204255	0
6	3403	100.155590204255	1
6	3404	100.155590204255	0
6	3439	101.155590204255	1
6	3440	101.155590204255	0
6	3472	102.155590204255	1
6	3473	102.155590204255	0
6	3499	103.155590204255	1
6	3500	103.155590204255	0
6	3529	104.155590204255	1
6	3530	104.155590204255	0
6	3565	105.155590204255	1
6	3566	105.155590204255	0
6	3598	106.155590204255	1
6	3599	106.155590204255	0
6	3631	107.155590204255	1
6	3632	107.155590204255	0
6	3661	108.155590204255	1
6	3662	108.155590204255	0
6	3688	109.155590204255	1
6	3689	109.155590204255	0
6	3718	110.155590204255	1
6	3719	110.155590204255	0
6	3757	111.155590204255	1
6	3758	111.155590204255	0
6	3784	112.155590204255	1
6	3785	112.155590204255	0
6	3814	113.155590204255	1
6	3815	113.155590204255	0
6	3847	114.155590204255	1
6	3848	114.155590204255	0
6	3880	115.155590204255	1
6	3881	115.155590204255	0
6	3910	116.155590204255	1
6	3911	116.155590204255	0
6	3946	117.155590204255	1
6	3947	117.155590204255	0
6	3979	118.155590204255	1
6	3980	118.155590204255	0
6	4012	119.155590204255	1
6	4013	119.155590204255	0
6	4042	120.155590204255	1
6	4043	120.155590204255	0
6	4069	121.155590204255	1
6	4070	121.155590204255	0
6	4099	122.155590204255	1
6	4100	122.155590204255	0
6	4132	123.155590204255	1
6	4133	123.155590204255	0
6	4165	124.155590204255	1
6	4166	124.155590204255	0
6	4201	125.155590204255	1
6	4202	125.155590204255	0
6	4231	126.155590204255	1
6	4232	126.155590204255	0
6	4264	127.155590204255	1
6	4265	127.155590204255	0
6	4298	128.155590204255	1
6	4299	128.155590204255	0
6	4337	129.155590204255	1
6	4338	129.155590204255	0
6	4370	130.155590204255	1
6	4371	130.155590204255	0
6	4409	131.155590204255	1
6	4410	131.155590204255	0
6	4442	132.155590204255	1
6	4443	132.155590204255	0
6	4481	133.155590204255	1
6	4482	133.155590204255	0
6	4514	134.155590204255	1
6	4515	134.155590204255	0
6	4550	135.155590204255	1
6	4551	135.155590204255	0
6	4586	136.155590204255	1
6	4587	136.155590204255	0
6	4619	137.155590204255	1
6	4620	137.155590204255	0
6	4652	138.155590204255	1
6	4653	138.155590204255	0
6	4685	139.155590204255	1
6	4686	139.155590204255	0
6	4718	140.155590204255	1
6	4719	140.155590204255	0
6	4757	141.155590204255	1
6	4758	141.155590204255	0
6	4784	142.155590204255	1
6	4785	142.155590204255	0
6	4811	143.155590204255	1
6	4812	143.155590204255	0
6	4844	144.155590204255	1
6	4845	144.155590204255	0
6	4874	145.155590204255	1
6	4875	145.155590204255	0
6	4907	146.155590204255	1
6	4908	146.155590204255	0
6	4949	147.155590204255	1
6	4950	147.155590204255	0
6	4976	148.155590204255	1
6	4977	148.155590204255	0
6	5012	149.155590204255	1
6	5013	149.155590204255	0
6	5039	150.155590204255	1
6	5040	150.155590204255	0
6	5072	151.155590204255	1
6	5073	151.155590204255	0
6	5099	152.155590204255	1
6	5100	152.155590204255	0
6	5126	153.155590204255	1
6	5127	153.155590204255	0
6	5156	154.155590204255	1
6	5157	154.155590204255	0
6	5183	155.155590204255	1
6	5184	155.155590204255	0
6	5222	156.155590204255	1
6	5223	156.155590204255	0
6	5261	157.155590204255	1
6	5262	157.155590204255	0
6	5288	158.155590204255	1
6	5289	158.155590204255	0
6	5321	159.155590204255	1
6	5322	159.155590204255	0
6	5348	160.155590204255	1
6	5349	160.155590204255	0
6	5393	161.155590204255	1
6	5394	161.155590204255	0
6	5426	162.155590204255	1
6	5427	162.155590204255	0
6	5459	163.155590204255	1
6	5460	163.155590204255	0
6	5489	164.155590204255	1
6	5490	164.155590204255	0
6	5519	165.155590204255	1
6	5520	165.155590204255	0
6	5558	166.155590204255	1
6	5559	166.155590204255	0
6	5585	167.155590204255	1
6	5586	167.155590204255	0
6	5618	168.155590204255	1
6	5619	168.155590204255	0
6	5645	169.155590204255	1
6	5646	169.155590204255	0
6	5687	170.155590204255	1
6	5688	170.155590204255	0
6	5717	171.155590204255	1
6	5718	171.155590204255	0
6	5744	172.155590204255	1
6	5745	172.155590204255	0
6	5780	173.155590204255	1
6	5781	173.155590204255	0
6	5813	174.155590204255	1
6	5814	174.155590204255	0
6	5864	175.155590204255	1
6	5865	175.155590204255	0
6	5897	176.155590204255	1
6	5898	176.155590204255	0
6	5930	177.155590204255	1
6	5931	177.155590204255	0
6	5960	178.155590204255	1
6	5961	178.155590204255	0
6	5987	179.155590204255	1
6	5988	179.155590204255	0
6	6017	180.155590204255	1
6	6018	180.155590204255	0
6	6050	181.155590204255	1
6	6051	181.155590204255	0
6	6089	182.155590204255	1
6	6090	182.155590204255	0
6	6125	183.155590204255	1
6	6126	183.155590204255	0
6	6158	184.155590204255	1
6	6159	184.155590204255	0
6	6191	185.155590204255	1
6	6192	185.155590204255	0
6	6218	186.155590204255	1
6	6219	186.155590204255	0
6	6245	187.155590204255	1
6	6246	187.155590204255	0
6	6278	188.155590204255	1
6	6279	188.155590204255	0
6	6311	189.155590204255	1
6	6312	189.155590204255	0
6	6344	190.155590204255	1
6	6345	190.155590204255	0
6	6374	191.155590204255	1
6	6375	191.155590204255	0
6	6404	192.155590204255	1
6	6405	192.155590204255	0
6	6434	193.155590204255	1
6	6435	193.155590204255	0
6	6467	194.155590204255	1
6	6468	194.155590204255	0
6	6503	195.155590204255	1
6	6504	195.155590204255	0
6	6545	196.155590204255	1
6	6546	196.155590204255	0
6	6575	197.155590204255	1
6	6576	197.155590204255	0
6	6605	198.155590204255	1
6	6606	198.155590204255	0
6	6634	199.155590204255	1
6	6635	199.155590204255	0
7	8	0	1
7	16	0	0
7	41	0.000116	1
7	49	0.000116	0
7	82	0.000232	1
7	90	0.000232	0
7	123	0.000348	1
7	131	0.000348	0
7	164	0.000464	1
7	172	0.000464	0
7	205	0.00058	1
7	213	0.00058	0
7	246	0.000696	1
7	254	0.000696	0
7	287	0.000812	1
7	295	0.000812	0
7	335	1.898660388484	1
7	336	1.898660388484	0
7	349	2.898660388484	1
7	350	2.898660388484	0
7	388	4.773428855839	1
7	389	4.773428855839	0
7	418	5.773428855839	1
7	419	5.773428855839	0
7	453	6.773428855839	1
7	454	6.773428855839	0
7	480	7.773428855839	1
7	481	7.773428855839	0
7	509	8.773428855839	1
7	510	8.773428855839	0
7	537	9.773428855839	1
7	538	9.773428855839	0
7	564	10.773428855839	1
7	565	10.773428855839	0
7	609	12.081964138406	1
7	610	12.081964138406	0
7	641	13.081964138406	1
7	642	13.081964138406	0
7	664	14.081964138406	1
7	665	14.081964138406	0
7	731	15.482440368894	1
7	732	15.482440368894	0
7	760	16.482440368894	1
7	761	16.482440368894	0
7	783	17.482440368894	1
7	784	17.482440368894	0
7	813	18.482440368894	1
7	814	18.482440368894	0
7	849	19.482440368894	1
7	850	19.482440368894	0
7	876	20.482440368894	1
7	877	20.482440368894	0
7	921	22.294539399622	1
7	922	22.294539399622	0
7	944	23.294539399622	1
7	945	23.294539399622	0
7	977	24.541488129362	1
7	978	24.541488129362	0
7	1010	26.155490204255	1
7	1011	26.155490204255	0
7	1036	27.155490204255	1
7	1037	27.155490204255	0
7	1058	28.155490204255	1
7	1059	28.155490204255	0
7	1093	29.155490204255	1
7	1094	29.155490204255	0
7	1120	30.155490204255	1
7	1121	30.155490204255	0
7	1150	31.155490204255	1
7	1151	31.155490204255	0
7	1182	32.155490204255	1
7	1183	32.155490204255	0
7	1216	33.155490204255	1
7	1217	33.155490204255	0
7	1247	34.155490204255	1
7	1248	34.155490204255	0
7	1286	35.155490204255	1
7	1287	35.155490204255	0
7	1325	36.155490204255	1
7	1326	36.155490204255	0
7	1361	37.155490204255	1
7	1362	37.155490204255	0
7	1391	38.155490204255	1
7	1392	38.155490204255	0
7	1418	39.155490204255	1
7	1419	39.155490204255	0
7	1451	40.155490204255	1
7	1452	40.155490204255	0
7	1487	41.155490204255	1
7	1488	41.155490204255	0
7	1520	42.155490204255	1
7	1521	42.155490204255	0
7	1556	43.155490204255	1
7	1557	43.155490204255	0
7	1586	44.155490204255	1
7	1587	44.155490204255	0
7	1616	45.155490204255	1
7	1617	45.155490204255	0
7	1646	46.155490204255	1
7	1647	46.155490204255	0
7	1684	47.155490204255	1
7	1685	47.155490204255	0
7	1712	48.155490204255	1
7	1713	48.155490204255	0
7	1751	49.155490204255	1
7	1752	49.155490204255	0
7	1784	50.155490204255	1
7	1785	50.155490204255	0
7	1814	51.155490204255	1
7	1815	51.155490204255	0
7	1841	52.155490204255	1
7	1842	52.155490204255	0
7	1868	53.155490204255	1
7	1869	53.155490204255	0
7	1901	54.155490204255	1
7	1902	54.155490204255	0
7	1937	55.155490204255	1
7	1938	55.155490204255	0
7	1970	56.155490204255	1
7	1971	56.155490204255	0
7	2000	57.155490204255	1
7	2001	57.155490204255	0
7	2033	58.155490204255	1
7	2034	58.155490204255	0
7	2066	59.155490204255	1
7	2067	59.155490204255	0
7	2099	60.155490204255	1
7	2100	60.155490204255	0
7	2139	61.155490204255	1
7	2140	61.155490204255	0
7	2172	62.155490204255	1
7	2173	62.155490204255	0
7	2211	63.155490204255	1
7	2212	63.155490204255	0
7	2241	64.155490204255	1
7	2242	64.155490204255	0
7	2271	65.155490204255	1
7	2272	65.155490204255	0
7	2310	66.155490204255	1
7	2311	66.155490204255	0
7	2340	67.155490204255	1
7	2341	67.155490204255	0
7	2370	68.155490204255	1
7	2371	68.155490204255	0
7	2406	69.155490204255	1
7	2407	69.155490204255	0
7	2433	70.155490204255	1
7	2434	70.155490204255	0
7	2460	71.155490204255	1
7	2461	71.155490204255	0
7	2490	72.155490204255	1
7	2491	72.155490204255	0
7	2519	73.155490204255	1
7	2520	73.155490204255	0
7	2550	74.155490204255	1
7	2551	74.155490204255	0
7	2577	75.155490204255	1
7	2578	75.155490204255	0
7	2607	76.155490204255	1
7	2608	76.155490204255	0
7	2638	77.155490204255	1
7	2639	77.155490204255	0
7	2668	78.155490204255	1
7	2669	78.155490204255	0
7	2693	79.155490204255	1
7	2694	79.155490204255	0
7	2723	80.155490204255	1
7	2724	80.155490204255	0
7	2756	81.155490204255	1
7	2757	81.155490204255	0
7	2789	82.155490204255	1
7	2790	82.155490204255	0
7	2819	83.155490204255	1
7	2820	83.155490204255	0
7	2852	84.155490204255	1
7	2853	84.155490204255	0
7	2885	85.155490204255	1
7	2886	85.155490204255	0
7	2921	86.155490204255	1
7	2922	86.155490204255	0
7	2951	87.155490204255	1
7	2952	87.155490204255	0
7	2987	88.155490204255	1
7	2988	88.155490204255	0
7	3014	89.155490204255	1
7	3015	89.155490204255	0
7	3050	90.155490204255	1
7	3051	90.155490204255	0
7	3083	91.155490204255	1
7	3084	91.155490204255	0
7	3116	92.155490204255	1
7	3117	92.155490204255	0
7	3152	93.155490204255	1
7	3153	93.155490204255	0
7	3182	94.155490204255	1
7	3183	94.155490204255	0
7	3212	95.155490204255	1
7	3213	95.155490204255	0
7	3254	96.155490204255	1
7	3255	96.155490204255	0
7	3290	97.155490204255	1
7	3291	97.155490204255	0
7	3332	98.155490204255	1
7	3333	98.155490204255	0
7	3365	99.155490204255	1
7	3366	99.155490204255	0
7	3398	100.155490204255	1
7	3399	100.155490204255	0
7	3434	101.155490204255	1
7	3435	101.155490204255	0
7	3467	102.155490204255	1
7	3468	102.155490204255	0
7	3494	103.155490204255	1
7	3495	103.155490204255	0
7	3524	104.155490204255	1
7	3525	104.155490204255	0
7	3560	105.155490204255	1
7	3561	105.155490204255	0
7	3593	106.155490204255	1
7	3594	106.155490204255	0
7	3626	107.155490204255	1
7	3627	107.155490204255	0
7	3656	108.155490204255	1
7	3657	108.155490204255	0
7	3683	109.155490204255	1
7	3684	109.155490204255	0
7	3713	110.155490204255	1
7	3714	110.155490204255	0
7	3752	111.155490204255	1
7	3753	111.155490204255	0
7	3779	112.155490204255	1
7	3780	112.155490204255	0
7	3809	113.155490204255	1
7	3810	113.155490204255	0
7	3842	114.155490204255	1
7	3843	114.155490204255	0
7	3875	115.155490204255	1
7	3876	115.155490204255	0
7	3905	116.155490204255	1
7	3906	116.155490204255	0
7	3941	117.155490204255	1
7	3942	117.155490204255	0
7	3974	118.155490204255	1
7	3975	118.155490204255	0
7	4007	119.155490204255	1
7	4008	119.155490204255	0
7	4037	120.155490204255	1
7	4038	120.155490204255	0
7	4064	121.155490204255	1
7	4065	121.155490204255	0
7	4094	122.155490204255	1
7	4095	122.155490204255	0
7	4127	123.155490204255	1
7	4128	123.155490204255	0
7	4160	124.155490204255	1
7	4161	124.155490204255	0
7	4196	125.155490204255	1
7	4197	125.155490204255	0
7	4226	126.155490204255	1
7	4227	126.155490204255	0
7	4259	127.155490204255	1
7	4260	127.155490204255	0
7	4293	128.155490204255	1
7	4294	128.155490204255	0
7	4332	129.155490204255	1
7	4333	129.155490204255	0
7	4365	130.155490204255	1
7	4366	130.155490204255	0
7	4404	131.155490204255	1
7	4405	131.155490204255	0
7	4437	132.155490204255	1
7	4438	132.155490204255	0
7	4476	133.155490204255	1
7	4477	133.155490204255	0
7	4509	134.155490204255	1
7	4510	134.155490204255	0
7	4545	135.155490204255	1
7	4546	135.155490204255	0
7	4581	136.155490204255	1
7	4582	136.155490204255	0
7	4614	137.155490204255	1
7	4615	137.155490204255	0
7	4647	138.155490204255	1
7	4648	138.155490204255	0
7	4680	139.155490204255	1
7	4681	139.155490204255	0
7	4713	140.155490204255	1
7	4714	140.155490204255	0
7	4752	141.155490204255	1
7	4753	141.155490204255	0